[
  {
    "number": 0,
    "question": "A sample composed only of atoms having the same atomic number is classified as",
    "choices": [
      "a compound",
      "a solution",
      "an element",
      "an isomer"
    ],
    "answer": "c",
    "image": 0,
    "Calc": false,
    "Table": false
  },
  {
    "number": 1,
    "question": "A dilute, aqueous potassium nitrate solution is best classified as a",
    "choices": [
      "homogeneous compound",
      "homogeneous mixture",
      "heterogeneous compound",
      "heterogeneous mixture"
    ],
    "answer": "b",
    "image": 0,
    "Calc": false,
    "Table": false
  },
  {
    "number": 2,
    "question": "At which Celsius temperature does lead change from a solid to a liquid?",
    "choices": [
      "874\u00b0C",
      "601\u00b0C",
      "328\u00b0C",
      "0\u00b0C"
    ],
    "answer": "c",
    "image": 0,
    "Calc": false,
    "Table": true
  },
  {
    "number": 3,
    "question": "Which statement describes a chemical property of hydrogen gas?",
    "choices": [
      "Hydrogen gas burns in air.",
      "Hydrogen gas is colorless.",
      "Hydrogen gas has a density of 0.00009 g/cm\u00b3 at STP.",
      "Hydrogen gas has a boiling point of 20. K at standard pressure."
    ],
    "answer": "a",
    "image": 0,
    "Calc": false,
    "Table": false
  },
  {
    "number": 4,
    "question": "Which element has the greatest density at STP?",
    "choices": [
      "calcium",
      "carbon",
      "chlorine",
      "copper"
    ],
    "answer": "d",
    "image": 0,
    "Calc": false,
    "Table": true
  },
  {
    "number": 5,
    "question": "Which statement describes a chemical property of the element magnesium?",
    "choices": [
      "Magnesium is malleable.",
      "Magnesium conducts electricity.",
      "Magnesium reacts with an acid.",
      "Magnesium has a high boiling point."
    ],
    "answer": "a",
    "image": 0,
    "Calc": false,
    "Table": false
  },
  {
    "number": 6,
    "question": "Matter that is composed of two or more different elements chemically combined in a fixed proportion is classified as",
    "choices": [
      "a compound",
      "an isotope",
      "a mixture",
      "a solution"
    ],
    "answer": "a",
    "image": 0,
    "Calc": false,
    "Table": false
  },
  {
    "number": 7,
    "question": "Which element is a solid at STP and a good conductor of electricity?",
    "choices": [
      "iodine",
      "mercury",
      "nickel",
      "sulfur"
    ],
    "answer": "c",
    "image": 0,
    "Calc": false,
    "Table": true
  },
  {
    "number": 8,
    "question": "The table below shows mass and volume data for four samples of substances at 298 K and 1 atmosphere.\nWhich two samples could consist of the same substance?",
    "choices": [
      "_A_ and _B_",
      "_A_ and _C_",
      "_B_ and _C_",
      "_C_ and _D_"
    ],
    "answer": "b",
    "image": "https://i.imgur.com/yCdADwK.png",
    "Calc": false,
    "Table": false
  },
  {
    "number": 9,
    "question": "Bronze contains 90 to 95 percent copper and 5 to 10 percent tin. Because these percentages can vary, bronze is classified as",
    "choices": [
      "a compound",
      "an element",
      "a mixture",
      "a substance"
    ],
    "answer": "c",
    "image": 0,
    "Calc": false,
    "Table": false
  },
  {
    "number": 10,
    "question": "At STP, which list of elements contains a solid, a liquid, and a gas?",
    "choices": [
      "Hf, Hg, He",
      "Cr, Cl\u2082, C",
      "Ba, Br\u2082, B",
      "Se, Sn, Sr"
    ],
    "answer": "a",
    "image": 0,
    "Calc": false,
    "Table": true
  },
  {
    "number": 11,
    "question": "A 10.0-gram sample of which element has the smallest volume at STP?",
    "choices": [
      "aluminum",
      "magnesium",
      "titanium",
      "zinc"
    ],
    "answer": "d",
    "image": 0,
    "Calc": true,
    "Table": true
  },
  {
    "number": 12,
    "question": "At room temperature, a mixture of sand and water can be separated by",
    "choices": [
      "ionization",
      "combustion",
      "filtration",
      "sublimation"
    ],
    "answer": "c",
    "image": 0,
    "Calc": false,
    "Table": false
  }
]